 Gaussian 09, Revision D.01,

 ----------------------------------------------------------------------
 # B3LYP/6-31+G(d,p) empiricaldispersion=GD3 int=(grid=ultrafine) opt f
 req=noraman
 ----------------------------------------------------------------------

 ---------------------
 Klapotke02_TZ01_1.mol
 ---------------------
 Symbolic Z-matrix:
 Charge =  0 Multiplicity = 1

 SCF Done:  E(RB3LYP) =  -554.632168369     A.U. after   14 cycles
 SCF Done:  E(RB3LYP) =  -554.646180464     A.U. after   12 cycles
 SCF Done:  E(RB3LYP) =  -554.648251285     A.U. after   12 cycles
 SCF Done:  E(RB3LYP) =  -554.649559489     A.U. after   12 cycles
 SCF Done:  E(RB3LYP) =  -554.649988880     A.U. after   12 cycles
 SCF Done:  E(RB3LYP) =  -554.650528388     A.U. after   12 cycles
 SCF Done:  E(RB3LYP) =  -554.650750027     A.U. after   11 cycles
 SCF Done:  E(RB3LYP) =  -554.650862386     A.U. after   12 cycles
 SCF Done:  E(RB3LYP) =  -554.650877083     A.U. after   10 cycles
 SCF Done:  E(RB3LYP) =  -554.650878823     A.U. after   10 cycles
 SCF Done:  E(RB3LYP) =  -554.650880551     A.U. after   10 cycles
 SCF Done:  E(RB3LYP) =  -554.650880533     A.U. after    8 cycles
 Optimization completed.
    -- Stationary point found.

 1\1\GINC-LP057\FOpt\RB3LYP\6-31+G(d,p)\C3H4N8\U6023034\09-Apr-2021\0\\
 # B3LYP/6-31+G(d,p) empiricaldispersion=GD3 int=(grid=ultrafine) opt f
 req=noraman\\Klapotke02_TZ01_1.mol\\0,1\N,-2.4155883009,-1.1965968787,
 -1.3879800443\N,-2.9727271767,-0.1452519453,-0.7175146977\C,-1.9762862
 839,0.6605200869,-0.4200687223\N,-0.8312184064,0.1276489814,-0.9045493
 256\N,-1.1397255655,-1.0541249434,-1.5021743628\C,0.5481319627,0.55184
 27102,-0.7777419312\N,1.1194239947,0.1627228943,0.4953739668\N,1.10304
 74339,1.0186366443,1.5518016386\N,1.5927661879,0.3701191561,2.55219026

 Normal termination of Gaussian 09 at Fri Apr  9 08:29:08 2021.

 ----------------------------------------------------------------------
 #N Geom=AllCheck Guess=TCheck SCRF=Check GenChk RB3LYP/6-31+G(d,p) Fre
 q
 ----------------------------------------------------------------------

 Structure from the checkpoint file:  "Klapotke02_TZ01_1.chk"
 ---------------------
 Klapotke02_TZ01_1.mol
 ---------------------
 Charge =  0 Multiplicity = 1

 SCF Done:  E(RB3LYP) =  -554.650880533     A.U. after    1 cycles

  Exact polarizability:  99.609   2.220  86.143   0.001   0.018  68.245
 Approx polarizability: 142.080   6.347 152.203   0.005   0.042 113.445

                      1                      2                      3
                      A                      A                      A
 Frequencies --     41.5042                44.8598                61.9672
 Red. masses --      5.5786                 6.4202                11.1413
 Frc consts  --      0.0057                 0.0076                 0.0252
 IR Inten    --     16.3941                10.2047                 3.4336

                      4                      5                      6
                      A                      A                      A
 Frequencies --    181.2227               289.1255               368.7907
 Red. masses --     10.8491                 6.9551                 9.4445
 Frc consts  --      0.2099                 0.3426                 0.7568
 IR Inten    --      1.2656                 2.0123                 0.9526

                      7                      8                      9
                      A                      A                      A
 Frequencies --    373.0963               649.7485               655.7574
 Red. masses --      1.8773                 4.5685                 4.6387
 Frc consts  --      0.1540                 1.1364                 1.1753
 IR Inten    --      1.8695                 5.3294                 3.1797

                     10                     11                     12
                      A                      A                      A
 Frequencies --    724.8376               725.7523               740.9237
 Red. masses --     11.0116                11.4396                 4.6929
 Frc consts  --      3.4087                 3.5501                 1.5179
 IR Inten    --      3.4747                 0.7050                42.3883

                     13                     14                     15
                      A                      A                      A
 Frequencies --    784.4278               860.5655               861.5703
 Red. masses --      5.5466                 1.3659                 1.4032
 Frc consts  --      2.0109                 0.5960                 0.6137
 IR Inten    --     35.1625                16.5733                10.2611

                     16                     17                     18
                      A                      A                      A
 Frequencies --    939.8753               972.1091               980.8190
 Red. masses --      2.8590                 6.5929                 5.6330
 Frc consts  --      1.4880                 3.6708                 3.1928
 IR Inten    --     19.5718                 4.7323                10.5727

                     19                     20                     21
                      A                      A                      A
 Frequencies --   1028.1274              1028.7643              1103.5801
 Red. masses --      4.4430                 8.8487                 6.2899
 Frc consts  --      2.7671                 5.5178                 4.5134
 IR Inten    --     34.0851                 1.7763                15.6320

                     22                     23                     24
                      A                      A                      A
 Frequencies --   1109.2150              1138.1140              1191.6290
 Red. masses --      4.1191                 2.2037                 2.8159
 Frc consts  --      2.9859                 1.6818                 2.3559
 IR Inten    --     72.5334                 1.7686                83.5039

                     25                     26                     27
                      A                      A                      A
 Frequencies --   1192.7035              1249.0164              1324.2237
 Red. masses --      2.1948                 3.1740                 2.9371
 Frc consts  --      1.8396                 2.9174                 3.0345
 IR Inten    --     10.8698                14.9837                 0.1565

                     28                     29                     30
                      A                      A                      A
 Frequencies --   1343.3620              1354.5581              1406.6316
 Red. masses --      6.8722                 2.9677                 1.5547
 Frc consts  --      7.3069                 3.2082                 1.8124
 IR Inten    --     11.8319                 3.5982                88.0028

                     31                     32                     33
                      A                      A                      A
 Frequencies --   1454.7004              1464.7684              1479.3856
 Red. masses --      4.5530                 1.3756                 2.5656
 Frc consts  --      5.6767                 1.7389                 3.3083
 IR Inten    --     23.9002                 0.4883                 5.7772

                     34                     35                     36
                      A                      A                      A
 Frequencies --   1499.4946              1516.7330              3116.5755
 Red. masses --      4.4540                 3.5760                 1.0586
 Frc consts  --      5.9005                 4.8469                 6.0582
 IR Inten    --     63.7512                33.7502                 3.1412

                     37                     38                     39
                      A                      A                      A
 Frequencies --   3180.1731              3293.7677              3293.8052
 Red. masses --      1.1116                 1.1014                 1.1014
 Frc consts  --      6.6235                 7.0401                 7.0404
 IR Inten    --      1.0330                 0.1042                13.0305

 - Thermochemistry -
 -------------------
 Temperature   298.150 Kelvin.  Pressure   1.00000 Atm.
 Atom     1 has atomic number  7 and mass  14.00307

 Molecular mass:   152.05589 amu.
 Principal axes and moments of inertia in atomic units:
                           1         2         3
     Eigenvalues --   584.301812609.601872719.48253
           X            0.99994  -0.01054  -0.00002
           Y            0.01054   0.99994  -0.00001
           Z            0.00002   0.00001   1.00000
 This molecule is an asymmetric top.
 Rotational symmetry number  1.
 Warning -- assumption of classical behavior for rotation
           may cause significant error
 Rotational temperatures (Kelvin)      0.14823     0.03319     0.03185
 Rotational constants (GHZ):           3.08871     0.69158     0.66363
 Zero-point vibrational energy     269317.0 (Joules/Mol)
                                   64.36830 (Kcal/Mol)
 Warning -- explicit consideration of   7 degrees of freedom as
           vibrations may cause significant error
 Vibrational temperatures:     59.72    64.54    89.16   260.74   415.99
          (Kelvin)            530.61   536.80   934.84   943.49  1042.88
                             1044.19  1066.02  1128.62  1238.16  1239.61
                             1352.27  1398.65  1411.18  1479.24  1480.16
                             1587.80  1595.91  1637.49  1714.49  1716.03
                             1797.05  1905.26  1932.80  1948.90  2023.83
                             2092.99  2107.47  2128.50  2157.44  2182.24
                             4484.05  4575.55  4738.99  4739.05

 Zero-point correction=                           0.102577 (Hartree/Particle)
 Thermal correction to Energy=                    0.110772
 Thermal correction to Enthalpy=                  0.111716
 Thermal correction to Gibbs Free Energy=         0.066880
 Sum of electronic and zero-point Energies=           -554.548303
 Sum of electronic and thermal Energies=              -554.540109
 Sum of electronic and thermal Enthalpies=            -554.539165
 Sum of electronic and thermal Free Energies=         -554.584001

                     E (Thermal)             CV                S
                      KCal/Mol        Cal/Mol-Kelvin    Cal/Mol-Kelvin
 Total                   69.510             28.698             94.365
 Electronic               0.000              0.000              0.000
 Translational            0.889              2.981             40.967
 Rotational               0.889              2.981             29.807
 Vibrational             67.733             22.737             23.591
 Vibration     1          0.594              1.981              5.186
 Vibration     2          0.595              1.979              5.032
 Vibration     3          0.597              1.972              4.394
 Vibration     4          0.630              1.865              2.316
 Vibration     5          0.686              1.694              1.479
 Vibration     6          0.741              1.536              1.085
 Vibration     7          0.745              1.527              1.067

 1\1\GINC-LP057\Freq\RB3LYP\6-31+G(d,p)\C3H4N8\U6023034\09-Apr-2021\0\\
 #N Geom=AllCheck Guess=TCheck SCRF=Check GenChk RB3LYP/6-31+G(d,p) Fre
 q\\Klapotke02_TZ01_1.mol\\0,1\N,-2.4155883009,-1.1965968787,-1.3879800
 443\N,-2.9727271767,-0.1452519453,-0.7175146977\C,-1.9762862839,0.6605
 200869,-0.4200687223\N,-0.8312184064,0.1276489814,-0.9045493256\N,-1.1
 397255655,-1.0541249434,-1.5021743628\C,0.5481319627,0.5518427102,-0.7
 777419312\N,1.1194239947,0.1627228943,0.4953739668\N,1.1030474339,1.01
 86366443,1.5518016386\N,1.5927661879,0.3701191561,2.5521902662\N,1.929

 Normal termination of Gaussian 09 at Fri Apr  9 08:32:41 2021.

 ----------------------------------------------------------------------
 # M062X/def2TZVP extrabasis empiricaldispersion=GD3 int=(grid=ultrafin
 e) nmr=giao pop=nbo guess=read geom=check
 ----------------------------------------------------------------------

 ---------------------
 Klapotke02_TZ01_1.mol
 ---------------------
 Structure from the checkpoint file:  "Klapotke02_TZ01_1.chk"
 Charge =  0 Multiplicity = 1

 SCF Done:  E(RM062X) =  -554.619592012     A.U. after   12 cycles

      1  N    Isotropic =  -256.2309   Anisotropy =   544.9101

      2  N    Isotropic =  -167.8354   Anisotropy =   437.5631

      3  C    Isotropic =    23.5706   Anisotropy =   152.4006

      4  N    Isotropic =   -27.8320   Anisotropy =   187.1346

      5  N    Isotropic =  -197.9876   Anisotropy =   414.7165

      6  C    Isotropic =   126.2292   Anisotropy =    26.7772

      7  N    Isotropic =   -27.8343   Anisotropy =   187.1879

      8  N    Isotropic =  -197.9821   Anisotropy =   414.8088

      9  N    Isotropic =  -256.2743   Anisotropy =   544.9423

     10  N    Isotropic =  -167.8188   Anisotropy =   437.5541

     11  C    Isotropic =    23.5720   Anisotropy =   152.3456

     12  H    Isotropic =    22.6326   Anisotropy =     7.2836

     13  H    Isotropic =    24.9602   Anisotropy =     6.1157

     14  H    Isotropic =    24.9589   Anisotropy =     6.1197

     15  H    Isotropic =    22.6337   Anisotropy =     7.2793

 Summary of Natural Population Analysis:

                                       Natural Population
                Natural  -----------------------------------------------
    Atom  No    Charge         Core      Valence    Rydberg      Total
 -----------------------------------------------------------------------
      N    1   -0.04806      1.99972     5.00325    0.04508     7.04806
      N    2   -0.28646      1.99948     5.24517    0.04181     7.28646
      C    3    0.17498      1.99932     3.80426    0.02144     5.82502
      N    4   -0.23919      1.99945     5.21302    0.02672     7.23919
      N    5   -0.06561      1.99964     5.02797    0.03800     7.06561
      C    6   -0.03305      1.99925     4.01493    0.01887     6.03305
      N    7   -0.23918      1.99945     5.21301    0.02672     7.23918
      N    8   -0.06564      1.99964     5.02800    0.03801     7.06564
      N    9   -0.04804      1.99972     5.00324    0.04508     7.04804
      N   10   -0.28646      1.99948     5.24517    0.04181     7.28646
      C   11    0.17499      1.99932     3.80425    0.02144     5.82501
      H   12    0.23338      0.00000     0.76546    0.00116     0.76662
      H   13    0.24749      0.00000     0.75109    0.00142     0.75251
      H   14    0.24750      0.00000     0.75108    0.00142     0.75250
      H   15    0.23335      0.00000     0.76549    0.00116     0.76665
 =======================================================================
   * Total *    0.00000     21.99449    55.63538    0.37013    78.00000

 Normal termination of Gaussian 09 at Fri Apr  9 08:39:41 2021.
 Gaussian 09:  EM64L-G09RevD.01 24-Apr-2013

 ----------------------------------------------------------------------
 # M062X/def2TZVP extrabasis empiricaldispersion=GD3 int=(grid=ultrafin
 e) prop=(efg) pop=chelpg guess=read geom=check
 ----------------------------------------------------------------------

 ---------------------
 Klapotke02_TZ01_1.mol
 ---------------------
 Structure from the checkpoint file:  "Klapotke02_TZ01_1.chk"
 Charge =  0 Multiplicity = 1

                         Standard orientation:
 ---------------------------------------------------------------------
 Center     Atomic      Atomic             Coordinates (Angstroms)
 Number     Number       Type             X           Y           Z
 ---------------------------------------------------------------------
      1          7           0        2.831847    0.702524    0.601011
      2          7           0        2.803865   -0.644940    0.821941
      3          6           0        1.782454   -1.101854    0.130143
      4          7           0        1.198760   -0.064938   -0.513255
      5          7           0        1.878483    1.066428   -0.186286
      6          6           0        0.000033    0.003307   -1.323825
      7          7           0       -1.198841    0.067471   -0.513148
      8          7           0       -1.877439   -1.065749   -0.190326
      9          7           0       -2.830576   -0.705811    0.599073
     10          7           0       -2.804671    0.641042    0.823955
     11          6           0       -1.783745    1.101496    0.133796
     12          1           0        1.443809   -2.125483    0.072256
     13          1           0       -0.073373   -0.887042   -1.948797
     14          1           0        0.073567    0.896893   -1.944138
     15          1           0       -1.446449    2.125753    0.079241
 ---------------------------------------------------------------------

 SCF Done:  E(RM062X) =  -554.619592012     A.U. after    1 cycles

 The electronic state is 1-A.
 Alpha  occ. eigenvalues --  -14.88960 -14.88958 -14.85930 -14.85929 -14.84204
 Alpha  occ. eigenvalues --  -14.84202 -14.80644 -14.80642 -10.69720 -10.65351
 Alpha  occ. eigenvalues --  -10.65349  -1.28979  -1.28128  -1.12098  -1.06938
 Alpha  occ. eigenvalues --   -1.02319  -1.02169  -0.90142  -0.79222  -0.77334
 Alpha  occ. eigenvalues --   -0.77090  -0.73752  -0.68681  -0.66647  -0.60638
 Alpha  occ. eigenvalues --   -0.60118  -0.58471  -0.57252  -0.55987  -0.48504
 Alpha  occ. eigenvalues --   -0.48252  -0.42366  -0.40693  -0.40009  -0.39759
 Alpha  occ. eigenvalues --   -0.39564  -0.39194  -0.38870  -0.38574
 Alpha virt. eigenvalues --   -0.02492   0.00130   0.01792   0.02035   0.03542
 Alpha virt. eigenvalues --    0.03736   0.05017   0.05440   0.06548   0.07412
 Alpha virt. eigenvalues --    0.08312   0.09162   0.09313   0.10736   0.10746

 Mulliken charges:
               1
     1  N   -0.101926
     2  N   -0.170350
     3  C    0.003744
     4  N    0.019410
     5  N   -0.051670
     6  C   -0.235051
     7  N    0.019230
     8  N   -0.051849
     9  N   -0.101669
    10  N   -0.170398
    11  C    0.003807
    12  H    0.197319
    13  H    0.221072
    14  H    0.221075
    15  H    0.197256
 Sum of Mulliken charges =   0.00000

 Dipole moment (field-independent basis, Debye):
    X=             -0.0035    Y=              0.0130    Z=             -4.8541  Tot=              4.8541
 Quadrupole moment (field-independent basis, Debye-Ang):
   XX=            -89.7817   YY=            -60.8160   ZZ=            -61.1163
   XY=             -7.7807   XZ=             -0.0121   YZ=              0.0000

 ESP charges:
               1
     1  N   -0.039363
     2  N   -0.349586
     3  C    0.214491
     4  N    0.542768
     5  N   -0.311510
     6  C   -0.777868
     7  N    0.543628
     8  N   -0.311905
     9  N   -0.039277
    10  N   -0.350888
    11  C    0.217147
    12  H    0.074176
    13  H    0.257627
    14  H    0.257577
    15  H    0.072983
 Sum of ESP charges =   0.00000

 Normal termination of Gaussian 09 at Fri Apr  9 08:40:14 2021.
