 Gaussian 09, Revision D.01,

 ----------------------------------------------------------------------
 # B3LYP/6-31+G(d,p) empiricaldispersion=GD3 int=(grid=ultrafine) opt f
 req=noraman
 ----------------------------------------------------------------------

 ---------------------
 Klapotke02_TZ02_1.mol
 ---------------------
 Symbolic Z-matrix:
 Charge =  0 Multiplicity = 1

 SCF Done:  E(RB3LYP) =  -554.640855103     A.U. after   15 cycles
 SCF Done:  E(RB3LYP) =  -554.652343170     A.U. after   13 cycles
 SCF Done:  E(RB3LYP) =  -554.653809278     A.U. after   13 cycles
 SCF Done:  E(RB3LYP) =  -554.654571603     A.U. after   12 cycles
 SCF Done:  E(RB3LYP) =  -554.654966820     A.U. after   12 cycles
 SCF Done:  E(RB3LYP) =  -554.655324304     A.U. after   12 cycles
 SCF Done:  E(RB3LYP) =  -554.655474083     A.U. after   12 cycles
 SCF Done:  E(RB3LYP) =  -554.655623968     A.U. after   12 cycles
 SCF Done:  E(RB3LYP) =  -554.655728987     A.U. after   12 cycles
 SCF Done:  E(RB3LYP) =  -554.655759485     A.U. after   12 cycles
 SCF Done:  E(RB3LYP) =  -554.655795218     A.U. after   11 cycles
 SCF Done:  E(RB3LYP) =  -554.655799903     A.U. after   10 cycles
 SCF Done:  E(RB3LYP) =  -554.655801401     A.U. after   10 cycles
 SCF Done:  E(RB3LYP) =  -554.655802369     A.U. after    9 cycles
 SCF Done:  E(RB3LYP) =  -554.655803226     A.U. after   10 cycles
 SCF Done:  E(RB3LYP) =  -554.655803565     A.U. after    9 cycles
 Optimization completed.
    -- Stationary point found.

 1\1\GINC-LP062\FOpt\RB3LYP\6-31+G(d,p)\C3H4N8\U6023034\09-Apr-2021\0\\
 # B3LYP/6-31+G(d,p) empiricaldispersion=GD3 int=(grid=ultrafine) opt f
 req=noraman\\Klapotke02_TZ02_1.mol\\0,1\C,-2.5311663649,-1.1462813342,
 -0.5372683688\N,-2.7731180225,0.1887338095,-0.637614233\N,-1.614156548
 6,0.7557935711,-0.8392537844\N,-0.7182008854,-0.2366849183,-0.86509203
 91\N,-1.2446327133,-1.4450852904,-0.669897639\C,0.7061302938,0.0231583
 732,-0.9614887123\N,1.3014863418,0.2361825806,0.3421553429\N,2.1390650
 218,-0.6820241731,0.8947264223\N,2.469491313,-0.220136559,2.0509723988

 Normal termination of Gaussian 09 at Fri Apr  9 08:31:20 2021.

 ----------------------------------------------------------------------
 #N Geom=AllCheck Guess=TCheck SCRF=Check GenChk RB3LYP/6-31+G(d,p) Fre
 q
 ----------------------------------------------------------------------

 Structure from the checkpoint file:  "Klapotke02_TZ02_1.chk"
 ---------------------
 Klapotke02_TZ02_1.mol
 ---------------------
 Charge =  0 Multiplicity = 1

 SCF Done:  E(RB3LYP) =  -554.655803565     A.U. after    1 cycles

  Exact polarizability: 102.936  -3.175  83.573  -0.754  -2.394  68.990
 Approx polarizability: 144.802  -9.592 150.992   1.474  -5.917 113.123

                      1                      2                      3
                      A                      A                      A
 Frequencies --     36.7042                51.2196                64.9905
 Red. masses --      7.0293                 6.6543                 8.4158
 Frc consts  --      0.0056                 0.0103                 0.0209
 IR Inten    --      6.9480                 8.3176                 1.4935

                      4                      5                      6
                      A                      A                      A
 Frequencies --    186.1932               292.0646               365.7298
 Red. masses --      9.0398                 7.1455                 8.1064
 Frc consts  --      0.1846                 0.3591                 0.6388
 IR Inten    --      2.3555                 4.7829                 1.3494

                      7                      8                      9
                      A                      A                      A
 Frequencies --    380.1573               651.0269               683.3875
 Red. masses --      2.0265                 4.5858                 7.5856
 Frc consts  --      0.1726                 1.1452                 2.0873
 IR Inten    --      3.9400                 4.9572                10.0163

                     10                     11                     12
                      A                      A                      A
 Frequencies --    718.0687               725.4800               753.8209
 Red. masses --      5.3034                11.8075                 4.6662
 Frc consts  --      1.6111                 3.6615                 1.5622
 IR Inten    --      5.8443                 2.1965                46.1721

                     13                     14                     15
                      A                      A                      A
 Frequencies --    793.3301               863.3863               898.0045
 Red. masses --      6.1359                 1.3802                 1.3739
 Frc consts  --      2.2753                 0.6062                 0.6528
 IR Inten    --     41.0240                13.1802                12.5897

                     16                     17                     18
                      A                      A                      A
 Frequencies --    948.2375               975.5692              1015.7209
 Red. masses --      2.7200                 5.3062                 8.8457
 Frc consts  --      1.4410                 2.9754                 5.3769
 IR Inten    --     20.5906                 5.8104                22.1636

                     19                     20                     21
                      A                      A                      A
 Frequencies --   1023.7911              1040.3486              1104.2044
 Red. masses --      6.2453                 7.3979                 5.3760
 Frc consts  --      3.8568                 4.7176                 3.8619
 IR Inten    --     29.1544                14.9033                33.0817

                     22                     23                     24
                      A                      A                      A
 Frequencies --   1127.4841              1150.4305              1191.8737
 Red. masses --      2.3299                 1.9639                 2.3989
 Frc consts  --      1.7450                 1.5314                 2.0078
 IR Inten    --     22.9151                 8.3867                52.9625

                     25                     26                     27
                      A                      A                      A
 Frequencies --   1239.8444              1284.3009              1318.8059
 Red. masses --      5.0459                 4.7906                 3.3855
 Frc consts  --      4.5701                 4.6556                 3.4693
 IR Inten    --     34.7059                 2.4640                15.4508

                     28                     29                     30
                      A                      A                      A
 Frequencies --   1339.5435              1368.2076              1397.5464
 Red. masses --      6.0195                 1.9877                 9.8243
 Frc consts  --      6.3639                 2.1923                11.3054
 IR Inten    --      9.4305                 4.5178                68.8861

                     31                     32                     33
                      A                      A                      A
 Frequencies --   1406.6275              1454.8547              1475.1081
 Red. masses --      1.4025                 1.9186                 1.6989
 Frc consts  --      1.6350                 2.3926                 2.1781
 IR Inten    --     37.8599                 5.4340                12.5205

                     34                     35                     36
                      A                      A                      A
 Frequencies --   1500.1165              1511.1492              3119.9085
 Red. masses --      4.0272                 3.8609                 1.0595
 Frc consts  --      5.3395                 5.1945                 6.0765
 IR Inten    --     11.4867                44.2471                 2.5454

                     37                     38                     39
                      A                      A                      A
 Frequencies --   3192.1639              3293.1514              3301.3267
 Red. masses --      1.1105                 1.1013                 1.1006
 Frc consts  --      6.6674                 7.0370                 7.0676
 IR Inten    --      3.0445                 6.5708                 0.6709

 - Thermochemistry -
 -------------------
 Temperature   298.150 Kelvin.  Pressure   1.00000 Atm.
 Atom     1 has atomic number  6 and mass  12.00000

 Molecular mass:   152.05589 amu.
 Principal axes and moments of inertia in atomic units:
                           1         2         3
     Eigenvalues --   570.494902580.610892709.92980
           X            0.99992   0.00840  -0.00984
           Y           -0.00836   0.99995   0.00492
           Z            0.00988  -0.00483   0.99994
 This molecule is an asymmetric top.
 Rotational symmetry number  1.
 Warning -- assumption of classical behavior for rotation
           may cause significant error
 Rotational temperatures (Kelvin)      0.15182     0.03356     0.03196
 Rotational constants (GHZ):           3.16347     0.69935     0.66597
 Zero-point vibrational energy     270618.5 (Joules/Mol)
                                   64.67937 (Kcal/Mol)
 Warning -- explicit consideration of   7 degrees of freedom as
           vibrations may cause significant error
 Vibrational temperatures:     52.81    73.69    93.51   267.89   420.22
          (Kelvin)            526.20   546.96   936.68   983.24  1033.14
                             1043.80  1084.58  1141.42  1242.22  1292.03
                             1364.30  1403.62  1461.39  1473.01  1496.83
                             1588.70  1622.20  1655.21  1714.84  1783.86
                             1847.82  1897.47  1927.30  1968.54  2010.75
                             2023.82  2093.21  2122.35  2158.33  2174.20
                             4488.85  4592.81  4738.10  4749.87

 Zero-point correction=                           0.103073 (Hartree/Particle)
 Thermal correction to Energy=                    0.111203
 Thermal correction to Enthalpy=                  0.112147
 Thermal correction to Gibbs Free Energy=         0.067475
 Sum of electronic and zero-point Energies=           -554.552730
 Sum of electronic and thermal Energies=              -554.544601
 Sum of electronic and thermal Enthalpies=            -554.543657
 Sum of electronic and thermal Free Energies=         -554.588329

                     E (Thermal)             CV                S
                      KCal/Mol        Cal/Mol-Kelvin    Cal/Mol-Kelvin
 Total                   69.781             28.427             94.020
 Electronic               0.000              0.000              0.000
 Translational            0.889              2.981             40.967
 Rotational               0.889              2.981             29.768
 Vibrational             68.003             22.465             23.285
 Vibration     1          0.594              1.982              5.429
 Vibration     2          0.595              1.977              4.770
 Vibration     3          0.597              1.971              4.300
 Vibration     4          0.632              1.859              2.265
 Vibration     5          0.687              1.689              1.462
 Vibration     6          0.739              1.543              1.098
 Vibration     7          0.750              1.512              1.039

 1\1\GINC-LP062\Freq\RB3LYP\6-31+G(d,p)\C3H4N8\U6023034\09-Apr-2021\0\\
 #N Geom=AllCheck Guess=TCheck SCRF=Check GenChk RB3LYP/6-31+G(d,p) Fre
 q\\Klapotke02_TZ02_1.mol\\0,1\C,-2.5311663649,-1.1462813342,-0.5372683
 688\N,-2.7731180225,0.1887338095,-0.637614233\N,-1.6141565486,0.755793
 5711,-0.8392537844\N,-0.7182008854,-0.2366849183,-0.8650920391\N,-1.24
 46327133,-1.4450852904,-0.669897639\C,0.7061302938,0.0231583732,-0.961
 4887123\N,1.3014863418,0.2361825806,0.3421553429\N,2.1390650218,-0.682
 0241731,0.8947264223\N,2.469491313,-0.220136559,2.0509723988\N,1.86779

 Normal termination of Gaussian 09 at Fri Apr  9 08:34:54 2021.

 ----------------------------------------------------------------------
 # M062X/def2TZVP extrabasis empiricaldispersion=GD3 int=(grid=ultrafin
 e) nmr=giao pop=nbo guess=read geom=check
 ----------------------------------------------------------------------

 ---------------------
 Klapotke02_TZ02_1.mol
 ---------------------
 Structure from the checkpoint file:  "Klapotke02_TZ02_1.chk"
 Charge =  0 Multiplicity = 1

 SCF Done:  E(RM062X) =  -554.623865722     A.U. after   12 cycles

      1  C    Isotropic =     9.7680   Anisotropy =   136.6607

      2  N    Isotropic =  -176.5267   Anisotropy =   500.1132

      3  N    Isotropic =  -226.4381   Anisotropy =   494.3218

      4  N    Isotropic =   -88.2298   Anisotropy =   219.8736

      5  N    Isotropic =  -126.7207   Anisotropy =   444.8659

      6  C    Isotropic =   121.2143   Anisotropy =    26.2550

      7  N    Isotropic =   -25.1607   Anisotropy =   179.8023

      8  N    Isotropic =  -200.5899   Anisotropy =   413.7736

      9  N    Isotropic =  -250.3679   Anisotropy =   536.1958

     10  N    Isotropic =  -167.1100   Anisotropy =   437.9941

     11  C    Isotropic =    23.6928   Anisotropy =   156.2314

     12  H    Isotropic =    22.7165   Anisotropy =     5.2794

     13  H    Isotropic =    24.8084   Anisotropy =     5.4121

     14  H    Isotropic =    24.5774   Anisotropy =     6.1767

     15  H    Isotropic =    22.5908   Anisotropy =     7.7175

 Summary of Natural Population Analysis:

                                       Natural Population
                Natural  -----------------------------------------------
    Atom  No    Charge         Core      Valence    Rydberg      Total
 -----------------------------------------------------------------------
      C    1    0.11087      1.99951     3.86444    0.02518     5.88913
      N    2   -0.25251      1.99957     5.21106    0.04187     7.25251
      N    3   -0.03801      1.99963     5.00248    0.03590     7.03801
      N    4   -0.04659      1.99963     5.01785    0.02910     7.04659
      N    5   -0.23500      1.99947     5.20190    0.03363     7.23500
      C    6   -0.03568      1.99921     4.01872    0.01775     6.03568
      N    7   -0.23860      1.99945     5.21306    0.02609     7.23860
      N    8   -0.05051      1.99964     5.01337    0.03750     7.05051
      N    9   -0.05312      1.99972     5.00837    0.04503     7.05312
      N   10   -0.28903      1.99948     5.24776    0.04179     7.28903
      C   11    0.16988      1.99932     3.80930    0.02150     5.83012
      H   12    0.22039      0.00000     0.77853    0.00108     0.77961
      H   13    0.24107      0.00000     0.75772    0.00122     0.75893
      H   14    0.26302      0.00000     0.73543    0.00155     0.73698
      H   15    0.23381      0.00000     0.76494    0.00126     0.76619
 =======================================================================
   * Total *    0.00000     21.99465    55.64491    0.36045    78.00000

 Normal termination of Gaussian 09 at Fri Apr  9 08:41:53 2021.
 Gaussian 09:  EM64L-G09RevD.01 24-Apr-2013

 ----------------------------------------------------------------------
 # M062X/def2TZVP extrabasis empiricaldispersion=GD3 int=(grid=ultrafin
 e) prop=(efg) pop=chelpg guess=read geom=check
 ----------------------------------------------------------------------

 ---------------------
 Klapotke02_TZ02_1.mol
 ---------------------
 Structure from the checkpoint file:  "Klapotke02_TZ02_1.chk"
 Charge =  0 Multiplicity = 1

                         Standard orientation:
 ---------------------------------------------------------------------
 Center     Atomic      Atomic             Coordinates (Angstroms)
 Number     Number       Type             X           Y           Z
 ---------------------------------------------------------------------
      1          6           0       -2.758166   -0.357418    0.886707
      2          7           0       -2.803947    0.891244    0.348543
      3          7           0       -1.816982    0.957891   -0.504021
      4          7           0       -1.216731   -0.236556   -0.466455
      5          7           0       -1.764810   -1.089774    0.397889
      6          6           0        0.000902   -0.502593   -1.209507
      7          7           0        1.180803   -0.127356   -0.456948
      8          7           0        2.024306   -1.066819    0.048905
      9          7           0        2.944171   -0.423726    0.681128
     10          7           0        2.736698    0.925906    0.622643
     11          6           0        1.640416    1.089649   -0.085353
     12          1           0       -3.455669   -0.718274    1.626592
     13          1           0       -0.050852    0.071370   -2.135385
     14          1           0        0.063343   -1.570914   -1.411341
     15          1           0        1.159710    2.024312   -0.332736
 ---------------------------------------------------------------------

 SCF Done:  E(RM062X) =  -554.623865722     A.U. after    1 cycles

 The electronic state is 1-A.
 Alpha  occ. eigenvalues --  -14.91409 -14.88239 -14.86824 -14.85144 -14.83660
 Alpha  occ. eigenvalues --  -14.83352 -14.81831 -14.79936 -10.68970 -10.64557
 Alpha  occ. eigenvalues --  -10.63114  -1.30248  -1.27645  -1.11155  -1.07984
 Alpha  occ. eigenvalues --   -1.02865  -1.01214  -0.89607  -0.78444  -0.77722
 Alpha  occ. eigenvalues --   -0.76509  -0.73059  -0.67738  -0.66290  -0.60689
 Alpha  occ. eigenvalues --   -0.59331  -0.57629  -0.57001  -0.54507  -0.49027
 Alpha  occ. eigenvalues --   -0.47493  -0.42652  -0.42067  -0.40573  -0.39624
 Alpha  occ. eigenvalues --   -0.39557  -0.38697  -0.38313  -0.37984
 Alpha virt. eigenvalues --   -0.02946   0.00104   0.02494   0.03241   0.04101
 Alpha virt. eigenvalues --    0.04802   0.05281   0.06274   0.06909   0.07431
 Alpha virt. eigenvalues --    0.08067   0.08736   0.09668   0.10545   0.11012

 Mulliken charges:
               1
     1  C    0.032311
     2  N   -0.188286
     3  N    0.031159
     4  N   -0.063351
     5  N   -0.123092
     6  C   -0.190395
     7  N    0.036020
     8  N   -0.035114
     9  N   -0.115700
    10  N   -0.179113
    11  C   -0.012758
    12  H    0.176119
    13  H    0.212096
    14  H    0.219132
    15  H    0.200974
 Sum of Mulliken charges =   0.00000

 Dipole moment (field-independent basis, Debye):
    X=             -3.0238    Y=             -0.3889    Z=             -2.9777  Tot=              4.2616
 Quadrupole moment (field-independent basis, Debye-Ang):
   XX=            -77.9075   YY=            -66.7829   ZZ=            -57.7342
   XY=              6.8586   XZ=             -8.5634   YZ=              0.3576

 ESP charges:
               1
     1  C    0.467691
     2  N   -0.359113
     3  N   -0.254235
     4  N    0.751667
     5  N   -0.582554
     6  C   -0.609225
     7  N    0.553780
     8  N   -0.316918
     9  N   -0.043717
    10  N   -0.340408
    11  C    0.181134
    12  H    0.062925
    13  H    0.170905
    14  H    0.249648
    15  H    0.068420
 Sum of ESP charges =   0.00000

 Normal termination of Gaussian 09 at Fri Apr  9 08:42:24 2021.
